<VTKFile byte_order="LittleEndian" type="PolyData" version="0.1">
        <PolyData>
            <Piece NumberOfLines="287" NumberOfPoints="265">
                <Points>
                <DataArray Name="coords" NumberOfComponents="3" type="Float64">263.85350318471336	199.1799363057325	0.0	117.42888165038002	493.4343105320304	0.0	329.9031141868512	244.29065743944636	0.0	62.951541850220266	71.09251101321586	0.0	223.6621983914209	200.36193029490616	0.0	157.32293986636972	52.211581291759465	0.0	465.55633100697906	33.68195413758724	0.0	254.9598356914651	407.79096303057963	0.0	498.3333333333333	479.679012345679	0.0	301.4519480519481	147.55324675324675	0.0	166.21794871794873	436.78205128205127	0.0	378.86823529411765	375.0141176470588	0.0	403.5456674473068	161.21838407494144	0.0	294.44160583941607	498.3795620437956	0.0	258.11229946524065	121.27005347593582	0.0	339.6465936739659	475.88321167883214	0.0	251.47107438016528	78.9297520661157	0.0	429.3980582524272	387.4796116504854	0.0	251.7637630662021	450.8773519163763	0.0	166.73204022988506	404.75431034482756	0.0	83.70588235294117	417.8235294117647	0.0	289.6806282722513	394.6125654450262	0.0	151.46709470304975	468.2215088282504	0.0	292.162	372.618	0.0	415.24271844660194	351.28155339805824	0.0	361.24675324675326	210.582560296846	0.0	236.63815789473685	473.10526315789474	0.0	470.91849529780563	9.695924764890282	0.0	37.0	444.0	0.0	458.575	234.35	0.0	319.4470426409904	352.2118294360385	0.0	342.4956268221574	446.1516034985423	0.0	264.3955752212389	364.5628318584071	0.0	299.1297456690011	229.42314780685587	0.0	272.3370165745856	14.988950276243095	0.0	52.78800856531049	258.3511777301927	0.0	195.91289198606273	321.01045296167246	0.0	245.04819277108433	191.18072289156626	0.0	178.75	113.8887614678899	0.0	309.9882729211087	91.02025586353945	0.0	483.39858657243815	69.50530035335689	0.0	319.8658536585366	257.9390243902439	0.0	331.37632508833923	380.8144876325088	0.0	493.1179487179487	452.5846153846154	0.0	254.7621052631579	53.08	0.0	114.76428571428572	279.6857142857143	0.0	266.26526526526527	305.13113113113116	0.0	12.835489833641406	232.22181146025878	0.0	157.47773279352228	270.9919028340081	0.0	237.7032710280374	25.785046728971963	0.0	310.69086021505376	471.8333333333333	0.0	196.36	432.4377777777778	0.0	302.6317135549872	171.96675191815856	0.0	253.44485981308412	268.67196261682244	0.0	499.7133333333333	416.24	0.0	116.33009708737865	259.79320388349515	0.0	351.2707509881423	37.26086956521739	0.0	384.36248682824026	33.84510010537408	0.0	283.22285714285715	170.18666666666667	0.0	87.96741344195519	73.44195519348268	0.0	239.5	309.2769230769231	0.0	304.1509433962264	457.2641509433962	0.0	453.4188817598533	164.12648945921174	0.0	467.55823293172693	116.03614457831326	0.0	285.2633744855967	150.94650205761317	0.0	219.8716216216216	495.48986486486484	0.0	194.51785714285714	148.78571428571428	0.0	149.32110091743118	289.38532110091745	0.0	310.2705314009662	405.7149758454106	0.0	494.10997442455243	136.79667519181586	0.0	440.0866141732283	10.334645669291339	0.0	476.82494969818913	289.48692152917505	0.0	203.11213991769546	251.75102880658437	0.0	160.25446428571428	238.71130952380952	0.0	80.88276553106212	311.44889779559117	0.0	120.41326188881447	429.9109176155392	0.0	13.169435215946844	426.6146179401993	0.0	249.81730769230768	7.5576923076923075	0.0	212.49579831932772	5.949579831932773	0.0	417.782	27.106	0.0	193.0337552742616	75.19409282700423	0.0	494.921618204804	275.9165613147914	0.0	64.25938566552901	231.32423208191125	0.0	496.42585551330797	34.28897338403042	0.0	310.5508637236085	300.4990403071017	0.0	98.41121495327103	228.5607476635514	0.0	209.87391304347827	47.77391304347826	0.0	286.3056994818653	266.7746113989637	0.0	65.22686567164179	384.02089552238806	0.0	145.8948948948949	146.45645645645646	0.0	58.070422535211264	418.943661971831	0.0	179.33489827856025	166.0735524256651	0.0	223.6551724137931	439.2758620689655	0.0	299.82185273159143	485.2731591448931	0.0	361.0248447204969	259.49068322981367	0.0	371.4755434782609	192.8179347826087	0.0	54.587786259541986	89.49236641221374	0.0	104.57896924355776	184.83125519534497	0.0	47.95641025641026	160.97692307692307	0.0	26.44721689059501	270.8685220729367	0.0	114.69092219020173	85.68011527377521	0.0	174.42978723404255	202.36702127659575	0.0	315.2006319115324	439.5955766192733	0.0	266.1469194312796	177.86255924170615	0.0	288.03628601921025	113.03521878335113	0.0	37.15559772296015	92.79506641366224	0.0	394.475935828877	98.03743315508021	0.0	97.69465648854961	241.66412213740458	0.0	39.730886850152906	206.8960244648318	0.0	425.3940383830135	73.53736218864843	0.0	472.2372517444981	396.8931830381106	0.0	374.7674190382728	326.1550539744848	0.0	22.117075232459847	470.4683009298394	0.0	361.85167464114835	132.87240829346092	0.0	9.951690821256038	67.43478260869566	0.0	318.02880658436214	59.37037037037037	0.0	448.29783950617286	471.804012345679	0.0	217.1162109375	80.1826171875	0.0	417.1165644171779	426.8773006134969	0.0	23.599202392821535	380.8639082751745	0.0	422.5263157894737	110.47368421052632	0.0	41.36875	185.175	0.0	225.6818181818182	108.21103896103897	0.0	495.8805147058824	225.33823529411765	0.0	374.8447204968944	401.59627329192546	0.0	473.97058823529414	268.59705882352944	0.0	302.7747914735867	38.83225208526413	0.0	44.397156398104265	36.33554502369668	0.0	104.33587786259542	369.7080152671756	0.0	474.36254980079684	244.58366533864543	0.0	41.30392156862745	117.45098039215686	0.0	326.03092783505156	122.42268041237114	0.0	18.814565483476134	140.44124847001223	0.0	276.51162790697674	466.83720930232556	0.0	425.5021551724138	230.75215517241378	0.0	378.2782608695652	268.6913043478261	0.0	279.82142857142856	430.9535714285714	0.0	337.56269113149847	272.08460754332316	0.0	149.981981981982	92.24774774774775	0.0	253.83252427184465	238.88349514563106	0.0	412.37685459940656	263.3026706231454	0.0	211.6718480138169	28.44041450777202	0.0	475.22727272727275	492.6363636363636	0.0	300.3225806451613	427.1720430107527	0.0	220.8420405654579	339.4535955746773	0.0	141.3186440677966	11.324293785310735	0.0	124.05045871559633	224.37798165137616	0.0	176.74463937621832	459.2436647173489	0.0	42.070454545454545	429.18863636363636	0.0	465.4793388429752	434.54545454545456	0.0	409.6328125	240.2265625	0.0	434.09150326797385	187.51633986928104	0.0	205.19540229885058	106.11685823754789	0.0	7.134146341463414	295.0	0.0	182.14790996784566	10.241157556270096	0.0	479.86026936026934	326.58417508417506	0.0	202.35071707953063	397.1199478487614	0.0	444.0536635706914	343.99380804953563	0.0	151.8508064516129	303.883064516129	0.0	405.8538681948424	321.0573065902579	0.0	323.39125	143.12375	0.0	90.15747508305648	31.1687707641196	0.0	361.84397163120565	291.6624113475177	0.0	60.14336917562724	486.1621863799283	0.0	471.67149758454104	181.17230273752014	0.0	179.5873362445415	307.60480349344977	0.0	76.71135940409684	214.91061452513966	0.0	311.0186567164179	282.14179104477614	0.0	28.458866544789764	172.46252285191957	0.0	195.72857142857143	59.028571428571425	0.0	253.14358974358976	489.50897435897434	0.0	14.173972602739726	200.66849315068492	0.0	184.88031496062993	487.6448818897638	0.0	278.125	332.5625	0.0	352.859649122807	405.3362573099415	0.0	205.53623188405797	293.7826086956522	0.0	62.441825095057034	343.23041825095055	0.0	57.24282982791587	136.76290630975143	0.0	491.4621212121212	102.88636363636364	0.0	163.9975369458128	316.76354679802955	0.0	333.0445434298441	9.142538975501115	0.0	396.5659472422062	125.82014388489209	0.0	90.11563169164882	394.07708779443254	0.0	124.98201199200533	40.87475016655563	0.0	372.9733191035219	77.5837780149413	0.0	347.34360410831	93.52847805788983	0.0	383.42857142857144	58.27922077922078	0.0	18.175735950044604	319.693131132917	0.0	98.93793638479441	467.52521334367725	0.0	61.701149425287355	10.350574712643677	0.0	485.5081967213115	471.72677595628414	0.0	82.56617647058823	271.9823529411765	0.0	333.9504132231405	55.84297520661157	0.0	126.19499105545617	390.9651162790698	0.0	473.16911764705884	307.5637254901961	0.0	14.23136645962733	92.40683229813665	0.0	149.6502849002849	349.86467236467234	0.0	232.5493511600472	150.53873377900118	0.0	500.1111111111111	5.222222222222222	0.0	487.8865406006674	361.4071190211346	0.0	11.674224343675418	24.484486873508352	0.0	431.8236607142857	268.89955357142856	0.0	390.7985257985258	477.23130923130924	0.0	413.71020408163264	196.8938775510204	0.0	64.7614571092832	177.64864864864865	0.0	445.4706601466993	308.66136919315403	0.0	331.8474576271186	405.9717514124294	0.0	190.42741935483872	24.314516129032256	0.0	398.9059829059829	360.982905982906	0.0	405.47058823529414	404.28664799253033	0.0	303.7368421052632	196.3684210526316	0.0	96.4504347826087	143.66782608695652	0.0	115.22262773722628	118.47080291970804	0.0	38.63758389261745	304.7069351230425	0.0	369.614406779661	150.49576271186442	0.0	428.1078947368421	130.17631578947368	0.0	494.30117647058825	181.70823529411766	0.0	178.43093922651934	184.7403314917127	0.0	343.1563275434243	117.83870967741936	0.0	374.7204058624577	354.46223224351746	0.0	344.81239242685024	181.43201376936315	0.0	222.74107142857142	477.07142857142856	0.0	202.77272727272728	196.14141414141415	0.0	1.0	233.0	0.0	1.0	423.0	0.0	1.0	471.0	0.0	1.0	68.0	0.0	1.0	384.0	0.0	1.0	141.5	0.0	1.0	295.0	0.0	1.0	202.5	0.0	1.0	319.5	0.0	1.0	89.5	0.0	1.0	28.0	0.0	504.0	480.5	0.0	504.0	70.5	0.0	504.0	454.0	0.0	504.0	416.0	0.0	504.0	137.5	0.0	504.0	275.5	0.0	504.0	35.5	0.0	504.0	224.0	0.0	504.0	6.0	0.0	504.0	357.04	0.0	504.0	180.0	0.0	473.5	1.0	0.0	440.5	1.0	0.0	250.5	1.0	0.0	212.0	1.0	0.0	142.0	1.0	0.0	181.0	1.0	0.0	88.0	1.0	0.0	331.0	1.0	0.0	62.5	1.0	0.0	500.5	1.0	0.0	11.0	1.0	0.0	122.0	504.0	0.0	293.5	504.0	0.0	331.5	504.0	0.0	220.0	504.0	0.0	17.0	504.0	0.0	56.5	504.0	0.0	251.0	504.0	0.0	181.5	504.0	0.0	388.0	504.0	0.0</DataArray>
			</Points>
                <Lines>
                <DataArray Name="connectivity" NumberOfComponents="1" type="Int64">0	33	0	37	0	103	1	188	1	256	2	33	2	41	3	59	3	96	3	127	4	222	5	183	6	27	6	83	6	109	7	18	7	21	7	32	7	136	7	156	8	190	8	234	9	52	9	64	9	160	10	19	11	208	11	219	12	181	12	203	12	214	13	93	13	257	14	104	14	197	15	31	15	50	15	202	15	258	16	44	17	209	18	26	18	92	18	136	19	51	19	156	19	193	20	182	21	23	22	147	23	30	23	32	24	157	24	159	24	208	25	95	25	220	26	170	26	221	27	70	27	198	27	245	28	112	28	148	29	129	30	42	31	102	33	41	33	87	33	139	33	210	34	77	35	82	35	99	36	144	36	165	38	89	38	152	39	104	39	115	39	185	40	109	40	178	40	235	41	137	42	206	43	190	43	236	45	55	46	60	47	171	47	223	48	55	49	77	49	141	50	61	50	93	51	156	52	58	52	210	53	72	53	87	53	139	54	110	54	237	55	107	55	146	55	191	56	57	56	192	57	79	57	186	58	64	58	103	59	100	59	161	60	144	61	102	62	151	62	164	65	172	65	221	65	259	66	91	66	197	67	158	68	206	69	178	69	216	69	238	70	79	70	246	71	81	71	125	71	194	72	73	72	101	72	165	73	146	74	176	74	191	75	188	75	193	76	112	76	224	77	247	78	248	80	117	80	169	81	123	81	125	81	239	82	166	83	240	84	167	85	107	85	146	85	166	86	141	86	169	88	119	88	176	88	182	89	91	89	97	89	100	89	212	90	148	91	217	94	135	94	137	96	105	97	146	97	166	97	204	97	211	98	132	98	168	98	177	98	204	99	213	100	183	100	212	101	217	101	222	102	143	103	197	105	130	105	195	106	109	106	181	106	184	108	121	108	171	109	186	110	149	110	157	110	199	111	159	111	162	111	219	112	163	112	225	112	260	113	214	113	218	114	195	114	226	115	126	115	192	117	122	117	152	118	209	119	227	120	215	121	168	121	204	122	152	123	129	123	241	124	174	124	209	125	129	127	189	127	200	128	182	128	193	131	160	131	218	132	168	132	177	132	195	132	228	134	150	135	162	136	143	137	162	137	167	140	201	141	207	144	156	145	154	145	183	145	249	147	172	151	203	153	187	153	229	154	207	154	250	155	194	155	199	157	205	158	179	161	183	161	189	161	251	163	188	163	261	164	216	165	179	170	262	171	230	172	263	174	206	176	187	179	196	180	252	182	193	184	185	184	186	185	218	187	213	187	231	189	253	193	196	194	205	195	232	198	242	198	254	199	243	200	233	200	255	202	264	208	219	211	212	216	244</DataArray>
			<DataArray Name="offsets" NumberOfComponents="1" type="Int64">2	4	6	8	10	12	14	16	18	20	22	24	26	28	30	32	34	36	38	40	42	44	46	48	50	52	54	56	58	60	62	64	66	68	70	72	74	76	78	80	82	84	86	88	90	92	94	96	98	100	102	104	106	108	110	112	114	116	118	120	122	124	126	128	130	132	134	136	138	140	142	144	146	148	150	152	154	156	158	160	162	164	166	168	170	172	174	176	178	180	182	184	186	188	190	192	194	196	198	200	202	204	206	208	210	212	214	216	218	220	222	224	226	228	230	232	234	236	238	240	242	244	246	248	250	252	254	256	258	260	262	264	266	268	270	272	274	276	278	280	282	284	286	288	290	292	294	296	298	300	302	304	306	308	310	312	314	316	318	320	322	324	326	328	330	332	334	336	338	340	342	344	346	348	350	352	354	356	358	360	362	364	366	368	370	372	374	376	378	380	382	384	386	388	390	392	394	396	398	400	402	404	406	408	410	412	414	416	418	420	422	424	426	428	430	432	434	436	438	440	442	444	446	448	450	452	454	456	458	460	462	464	466	468	470	472	474	476	478	480	482	484	486	488	490	492	494	496	498	500	502	504	506	508	510	512	514	516	518	520	522	524	526	528	530	532	534	536	538	540	542	544	546	548	550	552	554	556	558	560	562	564	566	568	570	572	574</DataArray>
			</Lines>
                <PointData>
                <DataArray Name="network | net_01 | labels | pore.all" NumberOfComponents="1" type="Int64">1	1	1	1	1	1	1	1	1	1	1	1	1	1	1	1	1	1	1	1	1	1	1	1	1	1	1	1	1	1	1	1	1	1	1	1	1	1	1	1	1	1	1	1	1	1	1	1	1	1	1	1	1	1	1	1	1	1	1	1	1	1	1	1	1	1	1	1	1	1	1	1	1	1	1	1	1	1	1	1	1	1	1	1	1	1	1	1	1	1	1	1	1	1	1	1	1	1	1	1	1	1	1	1	1	1	1	1	1	1	1	1	1	1	1	1	1	1	1	1	1	1	1	1	1	1	1	1	1	1	1	1	1	1	1	1	1	1	1	1	1	1	1	1	1	1	1	1	1	1	1	1	1	1	1	1	1	1	1	1	1	1	1	1	1	1	1	1	1	1	1	1	1	1	1	1	1	1	1	1	1	1	1	1	1	1	1	1	1	1	1	1	1	1	1	1	1	1	1	1	1	1	1	1	1	1	1	1	1	1	1	1	1	1	1	1	1	1	1	1	1	1	1	1	1	1	1	1	1	1	1	1	1	1	1	1	1	1	1	1	1	1	1	1	1	1	1	1	1	1	1	1	1	1	1	1	1	1	1	1	1	1	1	1	1</DataArray>
			<DataArray Name="network | net_01 | labels | pore.back" NumberOfComponents="1" type="Int64">0	0	0	0	0	0	0	0	0	0	0	0	0	0	0	0	0	0	0	0	0	0	0	0	0	0	0	0	0	0	0	0	0	0	0	0	0	0	0	0	0	0	0	0	0	0	0	0	0	0	0	0	0	0	0	0	0	0	0	0	0	0	0	0	0	0	0	0	0	0	0	0	0	0	0	0	0	0	0	0	0	0	0	0	0	0	0	0	0	0	0	0	0	0	0	0	0	0	0	0	0	0	0	0	0	0	0	0	0	0	0	0	0	0	0	0	0	0	0	0	0	0	0	0	0	0	0	0	0	0	0	0	0	0	0	0	0	0	0	0	0	0	0	0	0	0	0	0	0	0	0	0	0	0	0	0	0	0	0	0	0	0	0	0	0	0	0	0	0	0	0	0	0	0	0	0	0	0	0	0	0	0	0	0	0	0	0	0	0	0	0	0	0	0	0	0	0	0	0	0	0	0	0	0	0	0	0	0	0	0	0	0	0	0	0	0	0	0	0	0	0	0	0	0	0	0	0	0	0	0	0	0	0	0	0	0	0	0	0	0	0	0	0	0	0	0	0	0	0	0	0	0	0	0	0	0	1	1	1	1	1	1	1	1	1</DataArray>
			<DataArray Name="network | net_01 | labels | pore.boundary" NumberOfComponents="1" type="Int64">0	0	0	0	0	0	0	0	0	0	0	0	0	0	0	0	0	0	0	0	0	0	0	0	0	0	0	0	0	0	0	0	0	0	0	0	0	0	0	0	0	0	0	0	0	0	0	0	0	0	0	0	0	0	0	0	0	0	0	0	0	0	0	0	0	0	0	0	0	0	0	0	0	0	0	0	0	0	0	0	0	0	0	0	0	0	0	0	0	0	0	0	0	0	0	0	0	0	0	0	0	0	0	0	0	0	0	0	0	0	0	0	0	0	0	0	0	0	0	0	0	0	0	0	0	0	0	0	0	0	0	0	0	0	0	0	0	0	0	0	0	0	0	0	0	0	0	0	0	0	0	0	0	0	0	0	0	0	0	0	0	0	0	0	0	0	0	0	0	0	0	0	0	0	0	0	0	0	0	0	0	0	0	0	0	0	0	0	0	0	0	0	0	0	0	0	0	0	0	0	0	0	0	0	0	0	0	0	0	0	0	0	0	0	0	0	0	0	0	0	0	0	0	1	1	1	1	1	1	1	1	1	1	1	1	1	1	1	1	1	1	1	1	1	1	1	1	1	1	1	1	1	1	1	1	1	1	1	1	1	1	1	1	1	1</DataArray>
			<DataArray Name="network | net_01 | labels | pore.front" NumberOfComponents="1" type="Int64">0	0	0	0	0	0	0	0	0	0	0	0	0	0	0	0	0	0	0	0	0	0	0	0	0	0	0	0	0	0	0	0	0	0	0	0	0	0	0	0	0	0	0	0	0	0	0	0	0	0	0	0	0	0	0	0	0	0	0	0	0	0	0	0	0	0	0	0	0	0	0	0	0	0	0	0	0	0	0	0	0	0	0	0	0	0	0	0	0	0	0	0	0	0	0	0	0	0	0	0	0	0	0	0	0	0	0	0	0	0	0	0	0	0	0	0	0	0	0	0	0	0	0	0	0	0	0	0	0	0	0	0	0	0	0	0	0	0	0	0	0	0	0	0	0	0	0	0	0	0	0	0	0	0	0	0	0	0	0	0	0	0	0	0	0	0	0	0	0	0	0	0	0	0	0	0	0	0	0	0	0	0	0	0	0	0	0	0	0	0	0	0	0	0	0	0	0	0	0	0	0	0	0	0	0	0	0	0	0	0	0	0	0	0	0	0	0	0	0	0	0	0	0	0	0	0	0	0	0	0	0	0	0	0	0	0	0	0	0	0	0	0	0	0	0	1	1	1	1	1	1	1	1	1	1	1	0	0	0	0	0	0	0	0	0</DataArray>
			<DataArray Name="network | net_01 | labels | pore.internal" NumberOfComponents="1" type="Int64">1	1	1	1	1	1	1	1	1	1	1	1	1	1	1	1	1	1	1	1	1	1	1	1	1	1	1	1	1	1	1	1	1	1	1	1	1	1	1	1	1	1	1	1	1	1	1	1	1	1	1	1	1	1	1	1	1	1	1	1	1	1	1	1	1	1	1	1	1	1	1	1	1	1	1	1	1	1	1	1	1	1	1	1	1	1	1	1	1	1	1	1	1	1	1	1	1	1	1	1	1	1	1	1	1	1	1	1	1	1	1	1	1	1	1	1	1	1	1	1	1	1	1	1	1	1	1	1	1	1	1	1	1	1	1	1	1	1	1	1	1	1	1	1	1	1	1	1	1	1	1	1	1	1	1	1	1	1	1	1	1	1	1	1	1	1	1	1	1	1	1	1	1	1	1	1	1	1	1	1	1	1	1	1	1	1	1	1	1	1	1	1	1	1	1	1	1	1	1	1	1	1	1	1	1	1	1	1	1	1	1	1	1	1	1	1	1	1	1	1	1	1	1	0	0	0	0	0	0	0	0	0	0	0	0	0	0	0	0	0	0	0	0	0	0	0	0	0	0	0	0	0	0	0	0	0	0	0	0	0	0	0	0	0	0</DataArray>
			<DataArray Name="network | net_01 | labels | pore.left" NumberOfComponents="1" type="Int64">0	0	0	0	0	0	0	0	0	0	0	0	0	0	0	0	0	0	0	0	0	0	0	0	0	0	0	0	0	0	0	0	0	0	0	0	0	0	0	0	0	0	0	0	0	0	0	0	0	0	0	0	0	0	0	0	0	0	0	0	0	0	0	0	0	0	0	0	0	0	0	0	0	0	0	0	0	0	0	0	0	0	0	0	0	0	0	0	0	0	0	0	0	0	0	0	0	0	0	0	0	0	0	0	0	0	0	0	0	0	0	0	0	0	0	0	0	0	0	0	0	0	0	0	0	0	0	0	0	0	0	0	0	0	0	0	0	0	0	0	0	0	0	0	0	0	0	0	0	0	0	0	0	0	0	0	0	0	0	0	0	0	0	0	0	0	0	0	0	0	0	0	0	0	0	0	0	0	0	0	0	0	0	0	0	0	0	0	0	0	0	0	0	0	0	0	0	0	0	0	0	0	0	0	0	0	0	0	0	0	0	0	0	0	0	0	0	0	0	0	0	0	0	1	1	1	1	1	1	1	1	1	1	1	0	0	0	0	0	0	0	0	0	0	0	0	0	0	0	0	0	0	0	0	0	0	0	0	0	0	0	0	0	0	0</DataArray>
			<DataArray Name="network | net_01 | labels | pore.right" NumberOfComponents="1" type="Int64">0	0	0	0	0	0	0	0	0	0	0	0	0	0	0	0	0	0	0	0	0	0	0	0	0	0	0	0	0	0	0	0	0	0	0	0	0	0	0	0	0	0	0	0	0	0	0	0	0	0	0	0	0	0	0	0	0	0	0	0	0	0	0	0	0	0	0	0	0	0	0	0	0	0	0	0	0	0	0	0	0	0	0	0	0	0	0	0	0	0	0	0	0	0	0	0	0	0	0	0	0	0	0	0	0	0	0	0	0	0	0	0	0	0	0	0	0	0	0	0	0	0	0	0	0	0	0	0	0	0	0	0	0	0	0	0	0	0	0	0	0	0	0	0	0	0	0	0	0	0	0	0	0	0	0	0	0	0	0	0	0	0	0	0	0	0	0	0	0	0	0	0	0	0	0	0	0	0	0	0	0	0	0	0	0	0	0	0	0	0	0	0	0	0	0	0	0	0	0	0	0	0	0	0	0	0	0	0	0	0	0	0	0	0	0	0	0	0	0	0	0	0	0	0	0	0	0	0	0	0	0	0	0	0	1	1	1	1	1	1	1	1	1	1	1	0	0	0	0	0	0	0	0	0	1	0	0	0	0	0	0	0	0	0	0</DataArray>
			<DataArray Name="network | net_01 | properties | pore.area" NumberOfComponents="1" type="Float64">369.0644562621473	273.59024035169597	107.22585581797055	334.2185960493123	182.37907166283034	207.85261659664167	369.0644562621473	1225.355776829617	53.68902036642391	171.11357675980324	35.81896531189507	120.95933226482609	1030.0862800106995	53.68902036642391	162.68976303905995	1117.114590935474	143.12811514569634	262.10147892214513	686.8750424242457	701.7182997444585	64.1595559338652	82.80514146320898	348.7217556220565	308.17529128574597	33.327810513971315	273.59024035169597	53.68902036642391	159.88693957831788	0.9440808164007473	14.306334094392525	817.7727038016975	159.88693957831788	606.882112933721	1132.1350318242455	53.68902036642391	207.85261659664167	264.9716784660953	53.68902036642391	462.5471777417328	465.47979453323273	997.1183252599706	40.85337550614655	308.17529128574597	107.22585581797055	233.47789842736444	53.68902036642391	488.96238143715897	262.10147892214513	118.20444786717364	253.4991258304092	207.85261659664167	233.47789842736444	162.68976303905995	533.0892584058518	14.306334094392525	401.11444236002586	273.59024035169597	509.5398197201196	325.52829185601206	262.10147892214513	118.20444786717364	40.85337550614655	427.40571842382576	107.22585581797055	120.95933226482609	159.88693957831788	93.60547737651125	64.1595559338652	120.95933226482609	325.52829185601206	118.20444786717364	322.6335265548281	1511.9014066872671	233.47789842736444	488.96238143715897	606.882112933721	151.49466866915972	82.80514146320898	30.85608457681843	273.59024035169597	118.20444786717364	256.36518167519375	120.95933226482609	118.20444786717364	253.4991258304092	118.20444786717364	118.20444786717364	253.4991258304092	817.7727038016975	1660.1248230620695	30.85608457681843	348.7217556220565	23.57765915340828	253.4991258304092	77.44181419299318	185.20113251843208	126.48053280995883	1584.4684759660315	210.6928366652065	686.8750424242457	734.4034005458346	287.9799298066628	334.2185960493123	120.95933226482609	462.5471777417328	273.59024035169597	279.3423935583718	72.105963481181	348.7217556220565	1382.0539620539337	767.127559917626	627.5935701573559	1276.5413036945936	442.03651354299814	107.22585581797055	93.60547737651125	366.15573433989994	415.71349322768805	205.01426266569246	1222.3462351875876	5.896821730220477	53.68902036642391	207.85261659664167	159.88693957831788	72.105963481181	207.85261659664167	427.40571842382576	369.0644562621473	308.17529128574597	253.4991258304092	96.31954527446864	33.327810513971315	746.2987043484218	16.564909397453846	262.10147892214513	207.85261659664167	299.51330919527356	462.5471777417328	77.44181419299318	207.85261659664167	162.68976303905995	366.15573433989994	5.896821730220477	77.44181419299318	844.6177102690272	262.10147892214513	442.03651354299814	308.17529128574597	207.85261659664167	627.5935701573559	72.105963481181	77.44181419299318	299.51330919527356	53.68902036642391	151.49466866915972	334.2185960493123	1222.3462351875876	553.7217353984391	118.20444786717364	654.2514902624517	436.1821725500135	746.2987043484218	758.199053980895	627.5935701573559	273.59024035169597	159.88693957831788	262.10147892214513	129.24662906425465	233.47789842736444	64.1595559338652	334.2185960493123	462.5471777417328	814.7912909523984	12.098337756968323	162.68976303905995	16.564909397453846	509.5398197201196	334.2185960493123	40.85337550614655	205.01426266569246	159.88693957831788	308.17529128574597	219.2243584198239	889.4065355684437	465.47979453323273	589.1458849188349	77.44181419299318	553.7217353984391	817.7727038016975	126.48053280995883	219.2243584198239	348.7217556220565	322.6335265548281	494.8388559688301	159.88693957831788	369.0644562621473	648.3247836176163	1009.1038128297097	14.306334094392525	494.8388559688301	322.6335265548281	230.62389372111824	1681.3200087330495	151.49466866915972	465.47979453323273	553.7217353984391	40.85337550614655	53.68902036642391	33.327810513971315	675.0068094223203	299.51330919527356	262.10147892214513	233.47789842736444	230.62389372111824	118.20444786717364	219.2243584198239	233.47789842736444	53.68902036642391	159.88693957831788	541.9287812959546	287.9799298066628	53.68902036642391	107.22585581797055	4.039768919146211	4.039768919146211	4.039768919146211	4.039768919146211	4.039768919146211	4.039768919146211	4.039768919146211	4.039768919146211	4.039768919146211	4.039768919146211	4.039768919146211	4.039768919146211	4.039768919146211	4.039768919146211	4.039768919146211	4.039768919146211	4.039768919146211	4.039768919146211	4.039768919146211	4.039768919146211	4.039768919146211	4.039768919146211	4.039768919146211	4.039768919146211	4.039768919146211	4.039768919146211	4.039768919146211	4.039768919146211	4.039768919146211	4.039768919146211	4.039768919146211	4.039768919146211	4.039768919146211	4.039768919146211	4.039768919146211	4.039768919146211	4.039768919146211	4.039768919146211	4.039768919146211	4.039768919146211	4.039768919146211	4.039768919146211</DataArray>
			<DataArray Name="network | net_01 | properties | pore.diameter" NumberOfComponents="1" type="Float64">21.677349013870373	18.66402724680226	11.684357057429862	20.62862896742902	15.238511940908262	16.26794919243112	21.677349013870373	39.49900544860773	8.267949192431123	14.760371694901766	6.753230566669693	12.410084816162074	36.21528111445168	8.267949192431123	14.392464689028222	37.71411503906317	13.49949540415894	18.26794919243112	29.57290087742818	29.890725794114914	9.03827880670013	10.267949192431123	21.07145769441388	19.808608420969136	6.514160443666444	18.66402724680226	8.267949192431123	14.267949192431123	1.096376317177313	4.267949192431123	32.267949192431125	14.267949192431123	27.797595312897922	37.96681567498954	8.267949192431123	16.26794919243112	18.3677004346729	8.267949192431123	24.26794919243112	24.344758813241718	35.631032576969936	7.2122211024302825	19.808608420969136	11.684357057429862	17.241615153441398	8.267949192431123	24.95127732068379	18.26794919243112	12.267949192431123	17.96566479602333	16.26794919243112	17.241615153441398	14.392464689028222	26.05283717133073	4.267949192431123	22.598999313624	18.66402724680226	25.47089020990201	20.358671226805644	18.26794919243112	12.267949192431123	7.2122211024302825	23.327877364714457	11.684357057429862	12.410084816162074	14.267949192431123	10.917059833104641	9.03827880670013	12.410084816162074	20.358671226805644	12.267949192431123	20.26794919243112	43.87496619639664	17.241615153441398	24.95127732068379	27.797595312897922	13.888448544244431	10.267949192431123	6.267949192431123	18.66402724680226	12.267949192431123	18.066939065654452	12.410084816162074	12.267949192431123	17.96566479602333	12.267949192431123	12.267949192431123	17.96566479602333	32.267949192431125	45.97539095993738	6.267949192431123	21.07145769441388	5.479051743359101	17.96566479602333	9.929852982121725	15.355956683066184	12.69015429428708	44.91556435119353	16.378719468705956	29.57290087742818	30.578938035238142	19.148562210252223	20.62862896742902	12.410084816162074	24.26794919243112	18.66402724680226	18.859209474405123	9.581657691415884	21.07145769441388	41.948608528114235	31.252794197372406	28.26794919243112	40.3155412756884	23.723793315146832	11.684357057429862	10.917059833104641	21.591756771812324	23.006582946137083	16.15649301242944	39.45046975637913	2.7400851474307024	8.267949192431123	16.26794919243112	14.267949192431123	9.581657691415884	16.26794919243112	23.327877364714457	21.677349013870373	19.808608420969136	17.96566479602333	11.07419766729682	6.514160443666444	30.825590384630534	4.592504512767881	18.26794919243112	16.26794919243112	19.52824081790042	24.26794919243112	9.929852982121725	16.26794919243112	14.392464689028222	21.591756771812324	2.7400851474307024	9.929852982121725	32.79330219569526	18.26794919243112	23.723793315146832	19.808608420969136	16.26794919243112	28.26794919243112	9.581657691415884	9.929852982121725	19.52824081790042	8.267949192431123	13.888448544244431	20.62862896742902	39.45046975637913	26.552220439893023	12.267949192431123	28.862066273987832	23.566170473778158	30.825590384630534	31.070388126144575	28.26794919243112	18.66402724680226	14.267949192431123	18.26794919243112	12.82816897099216	17.241615153441398	9.03827880670013	20.62862896742902	24.26794919243112	32.2090746893854	3.9248034419235034	14.392464689028222	4.592504512767881	25.47089020990201	20.62862896742902	7.2122211024302825	16.15649301242944	14.267949192431123	19.808608420969136	16.707038107016896	33.65156121833939	24.344758813241718	27.388388749553194	9.929852982121725	26.552220439893023	32.267949192431125	12.69015429428708	16.707038107016896	21.07145769441388	20.26794919243112	25.1007649224286	14.267949192431123	21.677349013870373	28.731041615886756	35.844537648542996	4.267949192431123	25.1007649224286	20.26794919243112	17.135911456544328	46.267949192431125	13.888448544244431	24.344758813241718	26.552220439893023	7.2122211024302825	8.267949192431123	6.514160443666444	29.31629858495117	19.52824081790042	18.26794919243112	17.241615153441398	17.135911456544328	12.267949192431123	16.707038107016896	17.241615153441398	8.267949192431123	14.267949192431123	26.26794919243112	19.148562210252223	8.267949192431123	11.684357057429862	2.267949192431123	2.267949192431123	2.267949192431123	2.267949192431123	2.267949192431123	2.267949192431123	2.267949192431123	2.267949192431123	2.267949192431123	2.267949192431123	2.267949192431123	2.267949192431123	2.267949192431123	2.267949192431123	2.267949192431123	2.267949192431123	2.267949192431123	2.267949192431123	2.267949192431123	2.267949192431123	2.267949192431123	2.267949192431123	2.267949192431123	2.267949192431123	2.267949192431123	2.267949192431123	2.267949192431123	2.267949192431123	2.267949192431123	2.267949192431123	2.267949192431123	2.267949192431123	2.267949192431123	2.267949192431123	2.267949192431123	2.267949192431123	2.267949192431123	2.267949192431123	2.267949192431123	2.267949192431123	2.267949192431123	2.267949192431123</DataArray>