<VTKFile byte_order="LittleEndian" type="PolyData" version="0.1">
        <PolyData>
            <Piece NumberOfLines="22" NumberOfPoints="24">
                <Points>
                <DataArray Name="coords" NumberOfComponents="3" type="Float64">9.760180995475114	90.00904977375566	0.0	84.42307692307692	32.98996655518395	0.0	97.89344262295081	93.50819672131148	0.0	100.45454545454545	6.636363636363637	0.0	35.229934924078094	24.98481561822126	0.0	52.5796178343949	10.171974522292993	0.0	10.459715639810426	27.33175355450237	0.0	99.07692307692308	55.0	0.0	75.92643051771117	10.632152588555858	0.0	52.73432650527623	69.66697703289881	0.0	1.0	91.3076923076923	0.0	1.0	23.2	0.0	1.0	55.086956521739125	0.0	104.0	39.44444444444444	0.0	104.0	93.0	0.0	104.0	6.0	0.0	104.0	55.5	0.0	104.0	70.0	0.0	19.904761904761905	1.0	0.0	53.0	1.0	0.0	79.63157894736842	1.0	0.0	5.5	104.0	0.0	97.5	104.0	0.0	48.285714285714285	104.0	0.0</DataArray>
			</Points>
                <Lines>
                <DataArray Name="connectivity" NumberOfComponents="1" type="Int64">0	9	0	10	0	21	1	4	1	8	1	9	1	13	2	14	2	22	3	15	4	5	4	6	4	8	4	9	4	18	5	19	6	11	7	16	8	20	9	12	9	17	9	23</DataArray>
			<DataArray Name="offsets" NumberOfComponents="1" type="Int64">2	4	6	8	10	12	14	16	18	20	22	24	26	28	30	32	34	36	38	40	42	44</DataArray>
			</Lines>
                <PointData>
                <DataArray Name="network | net_01 | labels | pore.all" NumberOfComponents="1" type="Int64">1	1	1	1	1	1	1	1	1	1	1	1	1	1	1	1	1	1	1	1	1	1	1	1</DataArray>
			<DataArray Name="network | net_01 | labels | pore.back" NumberOfComponents="1" type="Int64">0	0	0	0	0	0	0	0	0	0	0	0	0	0	0	0	0	0	0	0	0	1	1	1</DataArray>
			<DataArray Name="network | net_01 | labels | pore.boundary" NumberOfComponents="1" type="Int64">0	0	0	0	0	0	0	0	0	0	1	1	1	1	1	1	1	1	1	1	1	1	1	1</DataArray>
			<DataArray Name="network | net_01 | labels | pore.front" NumberOfComponents="1" type="Int64">0	0	0	0	0	0	0	0	0	0	0	0	0	0	0	1	0	0	1	1	1	0	0	0</DataArray>
			<DataArray Name="network | net_01 | labels | pore.internal" NumberOfComponents="1" type="Int64">1	1	1	1	1	1	1	1	1	1	0	0	0	0	0	0	0	0	0	0	0	0	0	0</DataArray>
			<DataArray Name="network | net_01 | labels | pore.left" NumberOfComponents="1" type="Int64">0	0	0	0	0	0	0	0	0	0	1	1	1	0	0	0	0	0	0	0	0	1	0	0</DataArray>
			<DataArray Name="network | net_01 | labels | pore.right" NumberOfComponents="1" type="Int64">0	0	0	0	0	0	0	0	0	0	0	0	0	1	1	1	1	1	0	0	0	0	0	0</DataArray>
			<DataArray Name="network | net_01 | properties | pore.area" NumberOfComponents="1" type="Float64">33.327810513971315	23.57765915340828	30.85608457681843	0.9440808164007473	35.81896531189507	35.81896531189507	30.85608457681843	0.9440808164007473	53.68902036642391	64.1595559338652	4.039768919146211	4.039768919146211	4.039768919146211	4.039768919146211	4.039768919146211	4.039768919146211	0.05638905107948466	4.039768919146211	4.039768919146211	4.039768919146211	4.039768919146211	4.039768919146211	4.039768919146211	4.039768919146211</DataArray>
			<DataArray Name="network | net_01 | properties | pore.diameter" NumberOfComponents="1" type="Float64">6.514160443666444	5.479051743359101	6.267949192431123	1.096376317177313	6.753230566669693	6.753230566669693	6.267949192431123	1.096376317177313	8.267949192431123	9.03827880670013	2.267949192431123	2.267949192431123	2.267949192431123	2.267949192431123	2.267949192431123	2.267949192431123	0.2679491924311228	2.267949192431123	2.267949192431123	2.267949192431123	2.267949192431123	2.267949192431123	2.267949192431123	2.267949192431123</DataArray>
			<DataArray Name="network | net_01 | properties | pore.equivalent_diameter" NumberOfComponents="1" type="Float64">7.501208155472893	10.45283721905938	6.153474465532757	2.759294281870334	12.075656931354622	6.693198063015237	7.3863170325454695	2.9173032555927185	8.882921291255554	18.324929166666195	4.207479366835002	4.413041015034399	5.08881687589421	3.7221029453964003	4.601052455660459	2.5807620414842987	2.254503303573653	3.979590992379178	4.936820184470645	3.979590992379178	4.774839132028925	3.2515564208357337	2.840496169229977	4.936820184470645</DataArray>
			<DataArray Name="network | net_01 | properties | pore.extended_diameter" NumberOfComponents="1" type="Float64">10.0	8.485280990600586	11.661903381347656	2.8284270763397217	10.770329475402832	10.198039054870605	8.0	2.8284270763397217	10.0	11.661903381347656	10.0	8.0	5.656854152679443	4.0	11.661903381347656	2.8284270763397217	2.0	7.211102485656738	5.656854152679443	10.198039054870605	8.0	4.4721360206604	4.0	6.0</DataArray>
			<DataArray Name="network | net_01 | properties | pore.inscribed_diameter" NumberOfComponents="1" type="Float64">6.514160443666444	5.479051743359101	6.267949192431123	1.096376317177313	6.753230566669693	6.753230566669693	6.267949192431123	1.096376317177313	8.267949192431123	9.03827880670013	2.267949192431123	2.267949192431123	2.267949192431123	2.267949192431123	2.267949192431123	2.267949192431123	0.2679491924311228	2.267949192431123	2.267949192431123	2.267949192431123	2.267949192431123	2.267949192431123	2.267949192431123	2.267949192431123</DataArray>
			<DataArray Name="network | net_01 | properties | pore.label" NumberOfComponents="1" type="Int64">1	2	3	4	5	6	7	8	9	10	11	12	13	14	15	16	17	18	19	20	21	22	23	24</DataArray>
			<DataArray Name="network | net_01 | properties | pore.surface_area" NumberOfComponents="1" type="Int64">107	267	61	10	389	71	84	11	157	1323	29	34	52	25	36	8	6	24	48	24	45	14	10	54</DataArray>
			<DataArray Name="network | net_01 | properties | pore.volume" NumberOfComponents="1" type="Float64">221.0	598.0	122.0	11.0	922.0	157.0	211.0	13.0	367.0	3222.0	39.0	45.0	69.0	27.0	51.0	9.0	6.0	33.0	63.0	33.0	57.0	18.0	12.0	63.0</DataArray>
			</PointData>
                <CellData>
                <DataArray Name="network | net_01 | labels | throat.all" NumberOfComponents="1" type="Int64">1	1	1	1	1	1	1	1	1	1	1	1	1	1	1	1	1	1	1	1	1	1</DataArray>
			<DataArray Name="network | net_01 | labels | throat.boundary" NumberOfComponents="1" type="Int64">0	1	1	0	0	0	1	1	1	1	0	0	0	0	1	1	1	1	1	1	1	1</DataArray>
			<DataArray Name="network | net_01 | labels | throat.internal" NumberOfComponents="1" type="Int64">1	0	0	1	1	1	0	0	0	0	1	1	1	1	0	0	0	0	0	0	0	0</DataArray>
			<DataArray Name="network | net_01 | properties | throat.area" NumberOfComponents="1" type="Int64">2	13	6	1	2	5	9	17	4	3	2	4	1	3	21	11	15	2	19	23	11	21</DataArray>
			<DataArray Name="network | net_01 | properties | throat.conduit_lengths.pore1" NumberOfComponents="1" type="Float64">3.09976959973756	3.257080221833221	2.368242264768341	2.550490541366823	2.346274082467493	2.346274082467497	1.8721650572536617	3.1339745962155607	2.412839980132233	0.5481881585886517	3.2251404266559387	2.7205754486230416	3.225140426655941	3.2251404266559396	1.8443240077271674	3.3766152833348464	3.1339745962155607	0.5481881585886583	1.0439089817391243	3.5245739062671837	2.724448785029735	3.3797368162197388</DataArray>
			<DataArray Name="network | net_01 | properties | throat.conduit_lengths.pore2" NumberOfComponents="1" type="Float64">4.407110271698587	1.1339745962155618	1.1339745962155632	3.225140426655942	3.8845522303880435	4.292158083688001	1.1339745962155614	1.1339745962155627	1.133974596215561	1.133974596215566	3.22514042665594	2.4128399801322282	4.011202558105943	4.407110271698584	1.133974596215561	1.1339745962155598	1.1339745962155614	0.13397459621555918	1.1339745962155678	1.1339745962155598	1.133974596215561	1.1339745962155636</DataArray>
			<DataArray Name="network | net_01 | properties | throat.conduit_lengths.throat" NumberOfComponents="1" type="Float64">44.11100010565194	4.836715783394339	10.25117041822087	43.96483823166355	22.05474967168779	41.70893352101054	25.61928352041624	4.576406593280615	6.342486176155477	1.9416317342252036	21.88943128154155	18.916368181246906	36.20129356966086	52.05503029074096	25.840415366146065	4.672190134489113	7.269162982188193	4.3589481570225965	10.553319114304585	51.31415298472352	46.87626113014267	61.01629620379913</DataArray>
			<DataArray Name="network | net_01 | properties | throat.diameter" NumberOfComponents="1" type="Float64">2.0	10.0	4.4721360206604	2.0	2.8284270763397217	2.8284270763397217	4.0	11.661903381347656	4.0	2.8284270763397217	2.0	4.0	2.0	2.0	5.656854152679443	10.198039054870605	8.0	2.0	8.0	5.656854152679443	7.211102485656738	6.0</DataArray>
			<DataArray Name="network | net_01 | properties | throat.direct_length" NumberOfComponents="1" type="Float64">47.54552666331367	8.855915734944226	14.62517795951399	49.84022132030733	23.91787711115192	48.47040334703301	20.61349562744553	6.127667329967053	10.499177736196946	3.6021114102107195	22.812973467344417	24.881155139331078	43.1532581579389	47.98853272725912	28.46282326671139	9.181603226166475	10.32267443161979	4.948402407902222	10.320198078283912	53.74958173846903	51.26675514565204	34.62003201528753</DataArray>
			<DataArray Name="network | net_01 | properties | throat.equivalent_diameter" NumberOfComponents="1" type="Float64">1.4142135623730951	3.605551275463989	2.449489742783178	1.0	1.4142135623730951	2.23606797749979	3.0	4.123105625617661	2.0	1.7320508075688772	1.4142135623730951	2.0	1.0	1.7320508075688772	4.58257569495584	3.3166247903554	3.872983346207417	1.4142135623730951	4.358898943540674	4.795831523312719	3.3166247903554	4.58257569495584</DataArray>
			<DataArray Name="network | net_01 | properties | throat.inscribed_diameter" NumberOfComponents="1" type="Float64">2.0	10.0	4.4721360206604	2.0	2.8284270763397217	2.8284270763397217	4.0	11.661903381347656	4.0	2.8284270763397217	2.0	4.0	2.0	2.0	5.656854152679443	10.198039054870605	8.0	2.0	8.0	5.656854152679443	7.211102485656738	6.0</DataArray>
			<DataArray Name="network | net_01 | properties | throat.length" NumberOfComponents="1" type="Float64">44.11100010565194	4.836715783394339	10.25117041822087	43.96483823166355	22.05474967168779	41.70893352101054	25.61928352041624	4.576406593280615	6.342486176155477	1.9416317342252036	21.88943128154155	18.916368181246906	36.20129356966086	52.05503029074096	25.840415366146065	4.672190134489113	7.269162982188193	4.3589481570225965	10.553319114304585	51.31415298472352	46.87626113014267	61.01629620379913</DataArray>
			<DataArray Name="network | net_01 | properties | throat.perimeter" NumberOfComponents="1" type="Int64">2	3	1	1	2	5	8	2	3	3	2	2	1	3	10	4	5	2	7	9	3	13</DataArray>
			<DataArray Name="network | net_01 | properties | throat.total_length" NumberOfComponents="1" type="Float64">51.88721973083523	9.227770601443122	14.642225236269653	50.08097938667794	28.9282501395829	48.96759879604016	29.49278398831135	8.844355785711738	10.6104353685866	3.6237944890294216	28.642661848211244	25.42695806079731	43.71188344921127	59.95078497742587	30.351005245696474	9.18278001403952	11.537112174619315	5.041110911826815	15.821268306735709	56.967266984289154	52.5293751297083	66.66941020336476</DataArray>
			<DataArray Name="network | net_01 | properties | throat.volume" NumberOfComponents="1" type="Float64">0.0	0.0	0.0	0.0	0.0	0.0	0.0	0.0	0.0	0.0	0.0	0.0	0.0	0.0	0.0	0.0	0.0	0.0	0.0	0.0	0.0	0.0</DataArray>
			</CellData>
            </Piece>
        </PolyData>
    </VTKFile>