<VTKFile byte_order="LittleEndian" type="PolyData" version="0.1">
        <PolyData>
            <Piece NumberOfLines="2169" NumberOfPoints="519">
                <Points>
                <DataArray Name="coords" NumberOfComponents="3" type="Float64">111.03118161925602	148.62746170678338	185.46444201312912	29.346883468834687	138.2680463168268	110.10273466371028	185.31397655545535	49.527141568981065	142.04256086564473	28.479558728098638	196.33160285528876	109.2089552238806	99.80674927498023	133.9314526759821	194.8288953335091	60.2762948559307	50.32243238465618	187.99575746862294	127.96195768326565	80.15964949775594	88.56529172900193	156.3286418015482	77.8676988036594	75.75686136523575	25.406640705062514	77.17401106784178	57.34330805492929	145.21773288439954	187.3905723905724	116.51980118646786	4.779674166020171	180.4910783553142	181.60279286268425	13.203503142131302	25.06899318090654	137.28479743281187	21.25969090448442	52.92880668862427	172.4383075753737	54.80580357142857	2.5223214285714284	188.140625	197.86868686868686	144.00505050505052	3.04040404040404	1.2380952380952381	172.4112554112554	104.28571428571429	145.5270751115999	38.4804295788316	72.09245002264346	7.666271934546238	56.51781677252664	97.90727383643735	67.32330827067669	2.2130325814536342	162.05889724310777	5.764119601328904	183.9014396456257	134.718715393134	95.53835943721795	168.56729492965223	168.99734536766658	187.33777543211505	163.57606544398996	71.77371684918855	147.45630947966876	100.7051044370288	172.98034853540972	18.644527437083564	80.98535840088275	180.3934982812036	55.48461538461538	2.1564102564102563	106.55897435897435	197.43019943019942	66.95916429249763	155.74643874643874	79.67128870071447	97.55215665519978	105.33776131251653	10.803510854816825	175.8215739484396	60.97540705563094	103.54804370418223	34.1125747830239	18.28573434822908	54.2251968503937	189.28818897637797	55.61889763779528	54.09155372941449	150.68776301401635	123.44593922926538	121.97896120973044	196.27810650887574	194.47468770545694	193.42609299097847	129.25399028452463	153.5058986814712	114.62473940236275	7.1212647671994445	5.925642807505212	81.39024390243902	40.39837398373984	187.3861788617886	136.5746644295302	11.178691275167786	148.8515100671141	195.64264950166114	104.95182724252491	154.8610880398671	39.141819406359744	54.25612161447059	95.30408428344639	98.29577464788733	39.30439781546421	68.7743604484047	162.8159589090646	39.55002532011864	106.19416913839254	5.698529411764706	89.69493464052287	5.576470588235294	26.22098454904779	1.688106360043119	38.493711821775065	148.771915361363	80.88815608683704	134.27480076944215	181.63500678426053	1.5644504748982362	88.84938941655359	166.69565217391303	77.71739130434783	87.70652173913044	120.52441573247198	92.98517955538667	9.711476344290329	61.71753986332574	32.544988610478356	190.26651480637813	43.855555555555554	1.4333333333333333	79.17777777777778	33.90153392330384	188.32930186823992	152.51874139626352	100.20997679814386	126.21461716937355	186.23665893271462	54.147170962330335	26.983224035382037	166.81149916120177	12.225331369661266	1.6362297496318114	15.727540500736376	98.71171171171171	197.32046332046332	69.04247104247105	61.24292237442923	188.56803652968037	63.94200913242009	165.61893285506108	36.49652505324515	34.56883570601203	58.04076479076479	18.887085137085137	196.12337662337663	30.463990737167116	7.144268622153609	125.21775376302585	72.88789598834087	87.71821226764848	55.06415075042827	193.08933217692976	144.2150910667823	163.77498313578104	189.07827359180686	110.47505486466716	6.991075347476225	17.22134387351779	102.78194993412384	86.85770750988142	4.304225352112676	196.4788732394366	130.00704225352112	49.9929785661493	77.19327420546932	27.233924611973393	69.25871313672923	107.2721179624665	125.47855227882037	171.93987387129138	92.83818259997133	28.72481009029669	96.34600760456274	197.8897338403042	86.50190114068441	36.8304347826087	139.4391304347826	51.313043478260866	94.47620429483459	75.45908299477655	34.82733604178758	95.83573333333334	188.99626666666666	95.86026666666666	135.5836431226766	197.35687732342006	185.68029739776952	9.375	24.002373417721518	106.02175632911393	177.86318854947643	140.76739574942684	46.66664601276411	2.7962962962962963	191.80092592592592	133.57407407407408	183.35510444248308	132.81474943610866	6.115131901539669	2.2322193658954586	146.74378748928876	103.9477292202228	191.3252884771656	116.22574353973671	29.776694295465628	42.653901216893345	5.275948460987831	170.11274158911954	98.28630203291384	5.678848015488867	62.50108906098741	72.05637028229181	169.7223323204298	7.867705993746422	77.32732360700179	52.34023698823803	156.252044132865	169.67828200972448	20.500810372771475	109.21474878444084	132.3950542308594	116.43545568838033	35.89032368045345	123.0278163894614	84.13670133729569	189.80995063030244	131.24171514190022	188.81552970209765	97.9903930900758	2.634044040545264	23.976232086682977	142.58476057322613	55.21159593544531	2.1410639569635386	94.12014345487148	2.1606837606837606	3.5418803418803417	98.55042735042736	196.9587852494577	63.93275488069414	168.1344902386117	110.01587561374795	168.7861429350791	30.03175122749591	77.35250625203871	37.24497118625639	90.08774600413179	48.69984063176423	76.04540805404248	93.5271044932328	177.05185185185186	164.22962962962964	56.318518518518516	4.809565217391304	181.76521739130436	157.25217391304346	39.86223255221599	181.6171357615894	121.47220453387672	12.244425675675675	117.67728040540541	67.1054054054054	12.624329700743816	187.31940840685002	39.495199792423456	51.13542319749216	73.50532915360502	67.14984326018809	117.5019305019305	146.33118833118834	122.37323037323037	9.808654848800835	62.11939520333681	30.117831074035454	119.78339350180505	175.49458483754512	68.03971119133574	117.66867833433916	186.46047073023536	83.35586401126534	151.7125850340136	25.87216553287982	148.45266439909298	18.934643618280845	89.92753966374616	64.3469097797774	99.93254387819835	196.49397335588918	9.957496299429055	180.8062123319425	174.91423273064441	175.82892906815022	34.52891156462585	2.171768707482993	62.9608843537415	147.3835932986713	125.38128249566725	167.85961871750433	172.14403415027314	158.82118869219977	189.12519776709752	152.03703703703704	175.989417989418	64.87830687830687	104.58617859487853	15.353250164149705	43.12327642810243	134.39514519177024	173.537728567246	143.12392536796997	44.08332555752543	145.37510497340674	167.6123915274797	55.638911128903125	191.951160928743	92.29143314651722	123.96423314689432	28.03915219311157	34.743597291727994	164.09675190048375	32.52937111264686	158.35245335176228	6.026036644165863	171.0771456123433	179.88717454194793	106.49732012343674	102.31866168588598	100.25986681825565	175.3703525794985	61.84359688730906	150.3220290133538	94.09383502257302	124.12090770472687	157.5644302927019	123.53605496631312	39.5063371356147	62.2583550130078	120.19525360462563	33.26956012588743	187.3768938007758	191.21546961325967	92.04419889502762	44.666666666666664	156.09135662217173	190.74240272649814	84.21679447126763	143.33894500561166	193.42424242424244	127.91806958473626	86.61607142857143	51.93622448979592	84.75765306122449	70.72997172478793	175.02652484179345	150.79476908576814	146.7911366929641	87.51750925776847	100.79202221864435	125.16001844593036	61.67581277380678	71.59880101452617	180.61368599854404	40.636981315214754	76.26813880126183	169.09827772540183	101.97338407413369	137.7330129458024	46.23133116883117	79.38920454545455	179.16923701298703	12.132524707996406	10.000898472596585	106.09928122192274	114.72850678733032	156.9004524886878	177.47058823529412	60.750229194254864	15.296832026077213	142.99215646327798	134.4952380952381	26.06984126984127	10.936507936507937	179.88738738738738	48.68778153153153	124.44341216216216	33.722087783711615	106.94930740987985	192.80795226969292	41.86990679094541	48.79627163781625	172.48615179760318	12.632307692307691	81.77384615384615	151.9323076923077	167.46761690422605	161.5197966158206	159.6144869550721	112.65271226415095	161.71757075471697	85.04186320754717	101.48905109489051	160.85401459854015	178.6058394160584	105.64107142857142	137.0232142857143	186.31696428571428	81.48888355430809	87.38078442958968	9.099623296524726	113.00659356941769	86.13283449399911	139.13476070528966	1.834188034188034	50.3042735042735	159.94700854700855	188.95667447306792	20.156206088992974	3.5311475409836066	63.26023890784983	35.008532423208194	91.66211604095562	197.9655172413793	198.17241379310346	72.79310344827586	65.38504672897196	53.63738317757009	121.37906542056075	32.48222194103505	118.82731241300772	41.15193597368088	21.260065359477125	35.85052287581699	160.0108496732026	73.27513015618743	154.94780403150446	23.682285409157657	145.04535452871704	188.99263550226772	21.783016749741794	113.66807610993658	25.312896405919663	161.02325581395348	78.47390453041658	19.44838295861184	167.71325366281818	99.84805975587538	174.3689196574968	151.35780652213518	49.3921568627451	48.57843137254902	198.38235294117646	52.202643171806166	67.29295154185021	65.53083700440529	72.35868331441543	82.26976920166477	178.71812334468407	173.2244094488189	1.2125984251968505	0.952755905511811	183.8809986449518	21.343070079001865	161.91798123386087	80.12624958622973	166.78086726249586	48.91002979145978	90.94783639596918	51.22782058881644	65.23236514522821	9.754966887417218	137.59381898454745	13.916114790286976	77.66627078384798	189.61757719714964	22.30878859857482	138.7015437392796	2.620926243567753	22.02572898799314	92.984375	192.12017045454544	149.94801136363637	44.391077227163635	62.19073838768883	134.18297331639135	196.24694783573807	173.37319644839067	22.41842397336293	64.97026357287677	156.81369677855372	47.22460013516557	131.98251345119138	28.933416602613374	102.26566102997694	144.13296089385474	31.11731843575419	140.90614525139665	51.56386829856921	32.191001551456644	86.5828305464575	63.569124195328875	149.8558475869169	75.98076851518798	20.32477181065591	99.13436637656548	70.96582466567608	78.0235198702352	25.124898621248988	144.9862
[...]
                <PointData>
                <DataArray Name="network | net_01 | labels | pore.all" NumberOfComponents="1" type="Int64">1	1	1	1	1	1	1	1	1	1	1	1	1	1	1	1	1	1	1	1	1	1	1	1	1	1	1	1	1	1	1	1	1	1	1	1	1	1	1	1	1	1	1	1	1	1	1	1	1	1	1	1	1	1	1	1	1	1	1	1	1	1	1	1	1	1	1	1	1	1	1	1	1	1	1	1	1	1	1	1	1	1	1	1	1	1	1	1	1	1	1	1	1	1	1	1	1	1	1	1	1	1	1	1	1	1	1	1	1	1	1	1	1	1	1	1	1	1	1	1	1	1	1	1	1	1	1	1	1	1	1	1	1	1	1	1	1	1	1	1	1	1	1	1	1	1	1	1	1	1	1	1	1	1	1	1	1	1	1	1	1	1	1	1	1	1	1	1	1	1	1	1	1	1	1	1	1	1	1	1	1	1	1	1	1	1	1	1	1	1	1	1	1	1	1	1	1	1	1	1	1	1	1	1	1	1	1	1	1	1	1	1	1	1	1	1	1	1	1	1	1	1	1	1	1	1	1	1	1	1	1	1	1	1	1	1	1	1	1	1	1	1	1	1	1	1	1	1	1	1	1	1	1	1	1	1	1	1	1	1	1	1	1	1	1	1	1	1	1	1	1	1	1	1	1	1	1	1	1	1	1	1	1	1	1	1	1	1	1	1	1	1	1	1	1	1	1	1	1	1	1	1	1	1	1	1	1	1	1	1	1	1	1	1	1	1	1	1	1	1	1	1	1	1	1	1	1	1	1	1	1	1	1	1	1	1	1	1	1	1	1	1	1	1	1	1	1	1	1	1	1	1	1	1	1	1	1	1	1	1	1	1	1	1	1	1	1	1	1	1	1	1	1	1	1	1	1	1	1	1	1	1	1	1	1	1	1	1	1	1	1	1	1	1	1	1	1	1	1	1	1	1	1	1	1	1	1	1	1	1	1	1	1	1	1	1	1	1	1	1	1	1	1	1	1	1	1	1	1	1	1	1	1	1	1	1	1	1	1	1	1	1	1	1	1	1	1	1	1	1	1	1	1	1	1	1	1	1	1	1	1	1	1	1	1	1	1	1	1	1	1	1	1	1	1	1	1	1	1	1	1	1	1	1	1	1	1	1	1	1	1	1	1	1	1	1	1	1	1	1	1	1	1	1	1	1	1	1	1	1	1	1	1	1	1	1	1	1	1</DataArray>
			<DataArray Name="network | net_01 | labels | pore.geo_01" NumberOfComponents="1" type="Int64">1	1	1	1	1	1	1	1	1	1	1	1	1	1	1	1	1	1	1	1	1	1	1	1	1	1	1	1	1	1	1	1	1	1	1	1	1	1	1	1	1	1	1	1	1	1	1	1	1	1	1	1	1	1	1	1	1	1	1	1	1	1	1	1	1	1	1	1	1	1	1	1	1	1	1	1	1	1	1	1	1	1	1	1	1	1	1	1	1	1	1	1	1	1	1	1	1	1	1	1	1	1	1	1	1	1	1	1	1	1	1	1	1	1	1	1	1	1	1	1	1	1	1	1	1	1	1	1	1	1	1	1	1	1	1	1	1	1	1	1	1	1	1	1	1	1	1	1	1	1	1	1	1	1	1	1	1	1	1	1	1	1	1	1	1	1	1	1	1	1	1	1	1	1	1	1	1	1	1	1	1	1	1	1	1	1	1	1	1	1	1	1	1	1	1	1	1	1	1	1	1	1	1	1	1	1	1	1	1	1	1	1	1	1	1	1	1	1	1	1	1	1	1	1	1	1	1	1	1	1	1	1	1	1	1	1	1	1	1	1	1	1	1	1	1	1	1	1	1	1	1	1	1	1	1	1	1	1	1	1	1	1	1	1	1	1	1	1	1	1	1	1	1	1	1	1	1	1	1	1	1	1	1	1	1	1	1	1	1	1	1	1	1	1	1	1	1	1	1	1	1	1	1	1	1	1	1	1	1	1	1	1	1	1	1	1	1	1	1	1	1	1	1	1	1	1	1	1	1	1	1	1	1	1	1	1	1	1	1	1	1	1	1	1	1	1	1	1	1	1	1	1	1	1	1	1	1	1	1	1	1	1	1	1	1	1	1	1	1	1	1	1	1	1	1	1	1	1	1	1	1	1	1	1	1	1	1	1	1	1	1	1	1	1	1	1	1	1	1	1	1	1	1	1	1	1	1	1	1	1	1	1	1	1	1	1	1	1	1	1	1	1	1	1	1	1	1	1	1	1	1	1	1	1	1	1	1	1	1	1	1	1	1	1	1	1	1	1	1	1	1	1	1	1	1	1	1	1	1	1	1	1	1	1	1	1	1	1	1	1	1	1	1	1	1	1	1	1	1	1	1	1	1	1	1	1	1	1	1	1	1	1	1	1	1	1	1	1	1	1	1	1	1	1	1	1	1	1	1	1	1	1	1	1	1	1	1	1	1</DataArray>
			<DataArray Name="network | net_01 | properties | pore._id" NumberOfComponents="1" type="Int64">0	1	2	3	4	5	6	7	8	9	10	11	12	13	14	15	16	17	18	19	20	21	22	23	24	25	26	27	28	29	30	31	32	33	34	35	36	37	38	39	40	41	42	43	44	45	46	47	48	49	50	51	52	53	54	55	56	57	58	59	60	61	62	63	64	65	66	67	68	69	70	71	72	73	74	75	76	77	78	79	80	81	82	83	84	85	86	87	88	89	90	91	92	93	94	95	96	97	98	99	100	101	102	103	104	105	106	107	108	109	110	111	112	113	114	115	116	117	118	119	120	121	122	123	124	125	126	127	128	129	130	131	132	133	134	135	136	137	138	139	140	141	142	143	144	145	146	147	148	149	150	151	152	153	154	155	156	157	158	159	160	161	162	163	164	165	166	167	168	169	170	171	172	173	174	175	176	177	178	179	180	181	182	183	184	185	186	187	188	189	190	191	192	193	194	195	196	197	198	199	200	201	202	203	204	205	206	207	208	209	210	211	212	213	214	215	216	217	218	219	220	221	222	223	224	225	226	227	228	229	230	231	232	233	234	235	236	237	238	239	240	241	242	243	244	245	246	247	248	249	250	251	252	253	254	255	256	257	258	259	260	261	262	263	264	265	266	267	268	269	270	271	272	273	274	275	276	277	278	279	280	281	282	283	284	285	286	287	288	289	290	291	292	293	294	295	296	297	298	299	300	301	302	303	304	305	306	307	308	309	310	311	312	313	314	315	316	317	318	319	320	321	322	323	324	325	326	327	328	329	330	331	332	333	334	335	336	337	338	339	340	341	342	343	344	345	346	347	348	349	350	351	352	353	354	355	356	357	358	359	360	361	362	363	364	365	366	367	368	369	370	371	372	373	374	375	376	377	378	379	380	381	382	383	384	385	386	387	388	389	390	391	392	393	394	395	396	397	398	399	400	401	402	403	404	405	406	407	408	409	410	411	412	413	414	415	416	417	418	419	420	421	422	423	424	425	426	427	428	429	430	431	432	433	434	435	436	437	438	439	440	441	442	443	444	445	446	447	448	449	450	451	452	453	454	455	456	457	458	459	460	461	462	463	464	465	466	467	468	469	470	471	472	473	474	475	476	477	478	479	480	481	482	483	484	485	486	487	488	489	490	491	492	493	494	495	496	497	498	499	500	501	502	503	504	505	506	507	508	509	510	511	512	513	514	515	516	517	518</DataArray>
			<DataArray Name="network | net_01 | properties | pore.diameter" NumberOfComponents="1" type="Float64">14.142135620117188	20.0	24.73863410949707	15.748015403747559	22.44994354248047	19.697715759277344	25.45584487915039	14.142135620117188	22.360679626464844	26.0	18.76166343688965	18.867961883544922	18.0	8.485280990600586	14.142135620117188	11.661903381347656	26.305892944335938	32.06243896484375	11.313708305358887	13.416407585144043	24.331050872802734	36.055511474609375	24.331050872802734	32.0	10.770329475402832	16.248077392578125	25.377155303955078	27.20294189453125	37.735923767089844	14.0	32.24903106689453	20.784608840942383	16.0	22.89104652404785	6.0	14.0	17.8885440826416	29.79932975769043	19.899747848510742	26.07680892944336	42.237422943115234	24.0	25.45584487915039	15.36229133605957	7.4833149909973145	33.763885498046875	15.099668502807617	4.4721360206604	40.49691390991211	15.36229133605957	16.248077392578125	18.439088821411133	11.661903381347656	17.8885440826416	42.61455154418945	15.620499610900879	31.30495262145996	36.110939025878906	25.45584487915039	26.153392791748047	11.661903381347656	14.142135620117188	33.82307052612305	10.770329475402832	28.705400466918945	8.0	30.0	26.153392791748047	15.36229133605957	10.0	14.142135620117188	32.06243896484375	12.165525436401367	25.534290313720703	16.124515533447266	26.832815170288086	19.39072036743164	22.44994354248047	33.2866325378418	31.11269760131836	26.0	38.88444519042969	40.199501037597656	28.705400466918945	18.11077117919922	16.0	10.770329475402832	8.246211051940918	34.525352478027344	18.973665237426758	31.3687744140625	6.0	19.697715759277344	26.07680892944336	31.17691421508789	45.869380950927734	20.784608840942383	16.970561981201172	22.89104652404785	9.380831718444824	27.85677719116211	15.620499610900879	20.976177215576172	36.27671432495117	30.5941162109375	12.0	14.0	43.35896682739258	6.633249759674072	22.360679626464844	32.06243896484375	29.73213768005371	19.79899024963379	30.133037567138672	28.0	18.76166343688965	25.05992889404297	24.73863410949707	39.59798049926758	29.120439529418945	42.94182205200195	15.231546401977539	26.832815170288086	24.899799346923828	17.20465087890625	30.133037567138672	32.31098937988281	26.07680892944336	26.0	39.34463119506836	14.560219764709473	14.0	4.898979663848877	21.260292053222656	6.928203105926514	18.547237396240234	49.07137680053711	22.627416610717773	8.717798233032227	18.973665237426758	20.976177215576172	4.4721360206604	14.142135620117188	53.141319274902344	32.0	8.485280990600586	23.409399032592773	16.124515533447266	4.4721360206604	24.0	30.331501007080078	20.39607810974121	28.42534065246582	38.470767974853516	9.165151596069336	20.099750518798828	18.0	4.898979663848877	14.422204971313477	20.4939022064209	8.246211051940918	53.66563034057617	28.284271240234375	21.63330841064453	14.0	12.806248664855957	11.48912525177002	20.19900894165039	27.276363372802734	22.627416610717773	28.284271240234375	26.981475830078125	14.422204971313477	19.39072036743164	39.0384407043457	25.45584487915039	18.0	31.3687744140625	41.761226654052734	10.0	47.20169448852539	22.0	24.413110733032227	9.380831718444824	18.547237396240234	42.61455154418945	46.389652252197266	10.770329475402832	29.393877029418945	28.284271240234375	37.62977600097656	10.0	51.768714904785156	8.246211051940918	20.099750518798828	22.0	22.0	30.133037567138672	26.0	10.392304420471191	23.409399032592773	9.380831718444824	16.124515533447266	5.656854152679443	45.82575607299805	8.246211051940918	30.528675079345703	10.0	18.0	26.68332862854004	18.11077117919922	21.260292053222656	28.142494201660156	25.45584487915039	14.560219764709473	40.93898010253906	40.04996871948242	14.0	10.198039054870605	14.0	22.715633392333984	42.237422943115234	22.627416610717773	8.0	28.913663864135742	23.494680404663086	51.57518768310547	39.69886779785156	38.678157806396484	20.39607810974121	24.0	38.832977294921875	11.313708305358887	35.15679168701172	25.612497329711914	47.03190231323242	14.966629981994629	24.0	31.240999221801758	20.39607810974121	19.39072036743164	15.231546401977539	30.463092803955078	16.61324691772461	26.0	34.2928581237793	22.715633392333984	38.0	17.549928665161133	13.56466007232666	28.284271240234375	37.202152252197266	24.494897842407227	16.248077392578125	8.246211051940918	6.324555397033691	18.547237396240234	26.153392791748047	43.35896682739258	35.15679168701172	46.0	30.789608001708984	26.381811141967773	14.142135620117188	6.0	18.973665237426758	26.153392791748047	29.73213768005371	14.142135620117188	24.73863410949707	24.657655715942383	17.20465087890625	20.099750518798828	26.07680892944336	14.142135620117188	27.85677719116211	36.98648452758789	36.0	35.44009017944336	25.45584487915039	16.124515533447266	4.4721360206604	24.083189010620117	23.579652786254883	20.0	28.354894638061523	31.17691421508789	32.80244064331055	21.260292053222656	24.166091918945312	19.79899024963379	33.105892181396484	24.413110733032227	38.832977294921875	33.941123962402344	48.249351501464844	15.099668502807617	26.0	8.485280990600586	15.36229133605957	16.733200073242188	22.715633392333984	12.0	12.806248664855957	29.46183967590332	17.20465087890625	34.058773040771484	20.19900894165039	11.661903381347656	12.0	10.770329475402832	18.330303192138672	25.534290313720703	15.620499610900879	6.324555397033691	28.42534065246582	26.90724754333496	20.099750518798828	28.42534065246582	31.11269760131836	14.0	23.409399032592773	16.492422103881836	14.142135620117188	24.73863410949707	25.45584487915039	38.10511779785156	11.313708305358887	23.151674270629883	20.099750518798828	26.0	28.635643005371094	14.142135620117188	5.656854152679443	20.4939022064209	22.627416610717773	33.2866325378418	20.099750518798828	25.05992889404297	22.627416610717773	20.099750518798828	20.880613327026367	20.4939022064209	8.246211051940918	43.35896682739258	26.90724754333496	22.360679626464844	16.124515533447266	22.090721130371094	28.913663864135742	12.328827857971191	39.64845657348633	25.612497329711914	18.0	32.86335372924805	33.34666442871094	24.0	20.688159942626953	25.45584487915039	15.620499610900879	12.0	41.376319885253906	10.198039054870605	23.74868392944336	18.439088821411133	46.73328399658203	18.547237396240234	16.370704650878906	38.41874694824219	23.74868392944336	19.79899024963379	29.051677703857422	38.832977294921875	12.806248664855957	31.11269760131836	30.0	36.49657440185547	40.93898010253906	28.56571388244629	8.0	23.83275032043457	16.0	28.913663864135742	15.231546401977539	6.0	22.360679626464844	4.0	22.0	18.0	28.705400466918945	16.970561981201172	15.36229133605957	30.331501007080078	26.0	24.083189010620117	30.528675079345703	32.31098937988281	12.0	52.345008850097656	6.0	10.198039054870605	28.705400466918945	14.142135620117188	28.07133674621582	28.0	19.697715759277344	14.0	24.083189010620117	28.284271240234375	28.705400466918945	17.20465087890625	24.331050872802734	20.0	21.908903121948242	15.748015403747559	29.73213768005371	15.36229133605957	43.35896682739258	20.4939022064209	20.0	14.142135620117188	22.803508758544922	28.913663864135742	12.806248664855957	4.0	11.48912525177002	38.62641525268555	20.880613327026367	16.124515533447266	23.06512451171875	22.44994354248047	31.3687744140625	7.4833149909973145	17.8885440826416	19.697715759277344	12.806248664855957	11.313708305358887	31.30495262145996	23.74868392944336	32.0	29.933259963989258	18.867961883544922	46.73328399658203	9.380831718444824	30.066593170166016	18.439088821411133	17.20465087890625	32.06243896484375	18.867961883544922	14.0	16.970561981201172	7.211102485656738	22.090721130371094	8.246211051940918	6.324555397033691	24.413110733032227	10.198039054870605	17.435596466064453	30.0	14.0	21.260292053222656	32.06243896484375	18.330303192138672	22.0	40.099876403808594	12.328827857971191	15.231546401977539	22.360679626464844	10.954451560974121	25.45584487915039	5.656854152679443	24.819347381591797	8.246211051940918	38.0	8.717798233032227	35.608985900878906	30.0	35.608985900878906	30.0	6.324555397033691	21.540658950805664	5.656854152679443	19.79899024963379	18.547237396240234	23.151674270629883	20.099750518798828	41.03656768798828	28.635643005371094	37.735923767089844	14.0	38.88444519042969	39.69886779785156	35.38361358642578	23.579652786254883	18.439088821411133	10.198039054870605	22.0	18.0	20.976177215576172	20.0	24.331050872802734	19.697715759277344	8.246211051940918	36.0	24.166091918945312	16.61324691772461	22.0	53.141319274902344	30.0	29.120439529418945	24.166091918945312	15.748015403747559	16.124515533447266	25.690465927124023	18.439088821411133	29.529645919799805	39.4461669921875	29.73213768005371	16.124515533447266</DataArray>